
#(C) 2022 by FIZ Karlsruhe - Leibniz Institute for Information Infrastructure.  All rights reserved.
data_7749-ICSD
_database_code_ICSD 7749
_audit_creation_date 2019-08-01
_chemical_name_common 'Bismuth telluride (2/3)'
_chemical_formula_structural 'Bi2 Te3'
_chemical_formula_sum 'Bi2 Te3'
_chemical_name_structure_type α−In2Se3
_exptl_crystal_density_diffrn 7.84
_citation_title

;
Tailoring thermoelectric properties through structure and morphology in
chemically synthesized n-type bismuth telluride nanostructures
;
loop_
_citation_id
_citation_journal_full
_citation_year
_citation_journal_volume
_citation_page_first
_citation_page_last
_citation_journal_id_ASTM
primary 'Inorganic Chemistry' 2017 56 6264 6274 INOCAJ
loop_
_citation_author_citation_id
_citation_author_name
primary 'Akshay, V.R.'
primary 'Suneesh, M.V.'
primary 'Vasundhara, M.'
_cell_length_a 4.4577(8)
_cell_length_b 4.4577(8)
_cell_length_c 29.568(9)
_cell_angle_alpha 90.
_cell_angle_beta 90.
_cell_angle_gamma 120.
_cell_volume 508.83
_cell_formula_units_Z 3
_space_group_name_H-M_alt 'R 3 m H'
_space_group_IT_number 160
loop_
_space_group_symop_id
_space_group_symop_operation_xyz
1 '-x+y, y, z'
2 'x, x-y, z'
3 '-y, -x, z'
4 '-x+y, -x, z'
5 '-y, x-y, z'
6 'x, y, z'
7 '-x+y+2/3, y+1/3, z+1/3'
8 'x+2/3, x-y+1/3, z+1/3'
9 '-y+2/3, -x+1/3, z+1/3'
10 '-x+y+2/3, -x+1/3, z+1/3'
11 '-y+2/3, x-y+1/3, z+1/3'
12 'x+2/3, y+1/3, z+1/3'
13 '-x+y+1/3, y+2/3, z+2/3'
14 'x+1/3, x-y+2/3, z+2/3'
15 '-y+1/3, -x+2/3, z+2/3'
16 '-x+y+1/3, -x+2/3, z+2/3'
17 '-y+1/3, x-y+2/3, z+2/3'
18 'x+1/3, y+2/3, z+2/3'
loop_
_atom_type_symbol
_atom_type_oxidation_number
Bi3+ 3
Te2- -2
loop_
_atom_site_label
_atom_site_type_symbol
_atom_site_symmetry_multiplicity
_atom_site_Wyckoff_symbol
_atom_site_fract_x
_atom_site_fract_y
_atom_site_fract_z
_atom_site_U_iso_or_equiv
_atom_site_occupancy
Bi1 Bi3+ 3 a 0. 0. 0.20359 0.09673 1.
Bi2 Bi3+ 3 a 0. 0. 0.58909 0.0675 1.
Te1 Te2- 3 a 0. 0. 0.39507 0.09887 1.
Te2 Te2- 3 a 0. 0. 0.79024 0.0015 1.
Te3 Te2- 3 a 0. 0. -0.00937 -0.00043 1.
#End of TTdata_7749-ICSD