
#(C) 2020 by FIZ Karlsruhe - Leibniz Institute for Information Infrastructure.  All rights reserved.
data_157398-ICSD
_database_code_ICSD 157398
_audit_creation_date 2008-02-01
_chemical_name_common 'Gallium nitride - thick layer'
_chemical_formula_structural 'Ga N'
_chemical_formula_sum 'Ga1 N1'
_chemical_name_structure_type Wurtzite#ZnS(2H)
_exptl_crystal_density_diffrn 6.03
_diffrn_ambient_temperature 100.
_citation_title

;
Growth and structural properties of thick Ga N layers obtained by sublimation
sandwich method
;
loop_
_citation_id
_citation_journal_full
_citation_year
_citation_journal_volume
_citation_page_first
_citation_page_last
_citation_journal_id_ASTM
primary 'Journal of Crystal Growth' 2007 303 395 399 JCRGAE
loop_
_citation_author_citation_id
_citation_author_name
primary 'Kaminski, M.'
primary 'Podsiadlo, S.'
primary 'Wozniak, K.'
primary 'Dobrzycki, L.'
primary 'Jakiela, R.'
primary 'Barcz, A.'
primary 'Psoda, M.'
primary 'Mizera, J.'
_cell_length_a 3.1972(12)
_cell_length_b 3.1972(12)
_cell_length_c 5.207(3)
_cell_angle_alpha 90.
_cell_angle_beta 90.
_cell_angle_gamma 120.
_cell_volume 46.1
_cell_formula_units_Z 2
_space_group_name_H-M_alt 'P 63 m c'
_space_group_IT_number 186
loop_
_space_group_symop_id
_space_group_symop_operation_xyz
1 '-x, -x+y, z+1/2'
2 'x-y, -y, z+1/2'
3 'y, x, z+1/2'
4 'x-y, x, z+1/2'
5 'y, -x+y, z+1/2'
6 '-x, -y, z+1/2'
7 'x, x-y, z'
8 '-x+y, y, z'
9 '-y, -x, z'
10 '-x+y, -x, z'
11 '-y, x-y, z'
12 'x, y, z'
loop_
_atom_type_symbol
_atom_type_oxidation_number
Ga3+ 3
N3- -3
loop_
_atom_site_label
_atom_site_type_symbol
_atom_site_symmetry_multiplicity
_atom_site_Wyckoff_symbol
_atom_site_fract_x
_atom_site_fract_y
_atom_site_fract_z
_atom_site_U_iso_or_equiv
_atom_site_occupancy
Ga1 Ga3+ 2 b 0.6667 0.3333 0.5912(2) 0.003(1) 1.
N1 N3- 2 b 0.6667 0.3333 0.9688(2) 0.004(1) 1.
loop_
_atom_site_aniso_label
_atom_site_aniso_type_symbol
_atom_site_aniso_U_11
_atom_site_aniso_U_22
_atom_site_aniso_U_33
_atom_site_aniso_U_12
_atom_site_aniso_U_13
_atom_site_aniso_U_23
Ga1 Ga3+ 0.002(1) 0.002(1) 0.003(1) 0. 0. 0.
N1 N3- 0.003(1) 0.003(1) 0.004(1) 0. 0. 0.
#End of TTdata_157398-ICSD