
#(C) 2020 by FIZ Karlsruhe - Leibniz Institute for Information Infrastructure.  All rights reserved.
data_633275-ICSD
_database_code_ICSD 633275
_audit_creation_date 2012-08-01
_audit_update_record 2019-02-01
_chemical_name_common 'Iron sulfide (1/2)'
_chemical_formula_structural 'Fe S2'
_chemical_formula_sum 'Fe1 S2'
_chemical_name_structure_type Marcasite#FeS2(oP6)
_exptl_crystal_density_diffrn 4.88
_citation_title

;
High pressure X-ray diffraction study on p-FeS2, m-FeS2 and MnS2 to 340 kbar:
A possible high spin-low spin transition in MnS2
;
_publ_section_comment 'Cell and Type only determined'
loop_
_citation_id
_citation_journal_full
_citation_year
_citation_journal_volume
_citation_page_first
_citation_page_last
_citation_journal_id_ASTM
primary 'Journal of Physics and Chemistry of Solids' 1985 46 113 116 JPCSAW
loop_
_citation_author_citation_id
_citation_author_name
primary 'Chattopadhyay, T.'
primary 'Schnering, H.G. von'
_cell_length_a 4.441
_cell_length_b 5.425
_cell_length_c 3.387
_cell_angle_alpha 90.
_cell_angle_beta 90.
_cell_angle_gamma 90.
_cell_volume 81.6
_cell_formula_units_Z 2
_space_group_name_H-M_alt 'P n n m'
_space_group_IT_number 58
loop_
_space_group_symop_id
_space_group_symop_operation_xyz
1 'x+1/2, -y+1/2, z+1/2'
2 '-x+1/2, y+1/2, z+1/2'
3 'x, y, -z'
4 '-x, -y, -z'
5 '-x+1/2, y+1/2, -z+1/2'
6 'x+1/2, -y+1/2, -z+1/2'
7 '-x, -y, z'
8 'x, y, z'
loop_
_atom_type_symbol
_atom_type_oxidation_number
Fe2+ 2
S1- -1
loop_
_atom_site_label
_atom_site_type_symbol
_atom_site_symmetry_multiplicity
_atom_site_Wyckoff_symbol
_atom_site_fract_x
_atom_site_fract_y
_atom_site_fract_z
_atom_site_B_iso_or_equiv
_atom_site_occupancy
Fe1 Fe2+ 2 a 0 0 0 . 1.
S1 S1- 4 g 0.201 0.378 0 . 1.
#End of TTdata_633275-ICSD