
#(C) 2020 by FIZ Karlsruhe - Leibniz Institute for Information Infrastructure.  All rights reserved.
data_42415-ICSD
_database_code_ICSD 42415
_audit_creation_date 2000-07-15
_audit_update_record 2012-02-01
_chemical_name_common 'Iron persulfide'
_chemical_formula_structural 'Fe S2'
_chemical_formula_sum 'Fe1 S2'
_chemical_name_structure_type Marcasite#FeS2(oP6)
_chemical_name_mineral Marcasite
_exptl_crystal_density_diffrn 4.88
_citation_title

;
Compounds with the marcasite type crystal structure VIII. Redetermination of
the prototype
;
loop_
_citation_id
_citation_journal_full
_citation_year
_citation_journal_volume
_citation_page_first
_citation_page_last
_citation_journal_id_ASTM
primary 'Acta Chemica Scandinavica ' 1973 27 2791 2796 ACSAA4
loop_
_citation_author_citation_id
_citation_author_name
primary 'Brostigen, G.'
primary 'Kjekshus, A.'
primary 'Romming, C.'
_cell_length_a 4.4431(9)
_cell_length_b 5.4245(9)
_cell_length_c 3.3871(6)
_cell_angle_alpha 90.
_cell_angle_beta 90.
_cell_angle_gamma 90.
_cell_volume 81.63
_cell_formula_units_Z 2
_space_group_name_H-M_alt 'P n n m'
_space_group_IT_number 58
loop_
_space_group_symop_id
_space_group_symop_operation_xyz
1 'x+1/2, -y+1/2, z+1/2'
2 '-x+1/2, y+1/2, z+1/2'
3 'x, y, -z'
4 '-x, -y, -z'
5 '-x+1/2, y+1/2, -z+1/2'
6 'x+1/2, -y+1/2, -z+1/2'
7 '-x, -y, z'
8 'x, y, z'
loop_
_atom_type_symbol
_atom_type_oxidation_number
Fe2+ 2
S1- -1
loop_
_atom_site_label
_atom_site_type_symbol
_atom_site_symmetry_multiplicity
_atom_site_Wyckoff_symbol
_atom_site_fract_x
_atom_site_fract_y
_atom_site_fract_z
_atom_site_B_iso_or_equiv
_atom_site_occupancy
Fe1 Fe2+ 2 a 0 0 0 . 1.
S1 S1- 4 g 0.20052(14) 0.37827(9) 0 . 1.
#End of TTdata_42415-ICSD