
#(C) 2020 by FIZ Karlsruhe - Leibniz Institute for Information Infrastructure.  All rights reserved.
data_53529-ICSD
_database_code_ICSD 53529
_audit_creation_date 2003-04-01
_audit_update_record 2018-08-01
_chemical_name_common 'Iron sulfide (1/2)'
_chemical_formula_structural 'Fe S2'
_chemical_formula_sum 'Fe1 S2'
_chemical_name_structure_type Pyrite#FeS2(cP12)
_exptl_crystal_density_diffrn 5.01
_citation_title

;
The bulk moduli of 3d-transition element pyrites measured with synchrotron
radiation in a new belt type apparatus
;
loop_
_citation_id
_citation_journal_full
_citation_year
_citation_journal_volume
_citation_page_first
_citation_page_last
_citation_journal_id_ASTM
primary 'Materials Research Society Symposium Proceedings' 1984 22 49 52 MRSPDH
loop_
_citation_author_citation_id
_citation_author_name
primary 'Will, G.'
primary 'Lauterjung, J.'
primary 'Schmitz, H.'
primary 'Hinze, E.'
_cell_length_a 5.418(2)
_cell_length_b 5.418(2)
_cell_length_c 5.418(2)
_cell_angle_alpha 90.
_cell_angle_beta 90.
_cell_angle_gamma 90.
_cell_volume 159.04
_cell_formula_units_Z 4
_space_group_name_H-M_alt 'P a -3'
_space_group_IT_number 205
loop_
_space_group_symop_id
_space_group_symop_operation_xyz
1 '-z+1/2, x+1/2, y'
2 'z+1/2, x, -y+1/2'
3 'z, -x+1/2, y+1/2'
4 '-z, -x, -y'
5 'y, -z+1/2, x+1/2'
6 '-y+1/2, z+1/2, x'
7 'y+1/2, z, -x+1/2'
8 '-y, -z, -x'
9 'x+1/2, y, -z+1/2'
10 'x, -y+1/2, z+1/2'
11 '-x+1/2, y+1/2, z'
12 '-x, -y, -z'
13 'z+1/2, -x+1/2, -y'
14 '-z+1/2, -x, y+1/2'
15 '-z, x+1/2, -y+1/2'
16 'z, x, y'
17 '-y, z+1/2, -x+1/2'
18 'y+1/2, -z+1/2, -x'
19 '-y+1/2, -z, x+1/2'
20 'y, z, x'
21 '-x+1/2, -y, z+1/2'
22 '-x, y+1/2, -z+1/2'
23 'x+1/2, -y+1/2, -z'
24 'x, y, z'
loop_
_atom_type_symbol
_atom_type_oxidation_number
Fe2+ 2
S1- -1
loop_
_atom_site_label
_atom_site_type_symbol
_atom_site_symmetry_multiplicity
_atom_site_Wyckoff_symbol
_atom_site_fract_x
_atom_site_fract_y
_atom_site_fract_z
_atom_site_B_iso_or_equiv
_atom_site_occupancy
Fe1 Fe2+ 4 a 0 0 0 . 1.
S1 S1- 8 c 0.386(2) 0.386(2) 0.386(2) . 1.
#End of TTdata_53529-ICSD