
#(C) 2019 by FIZ Karlsruhe - Leibniz Institute for Information Infrastructure.  All rights reserved.
data_62789-ICSD
_database_code_ICSD 62789
_audit_creation_date 1988-07-15
_audit_update_record 2003-04-01
_chemical_name_systematic 'Silver iodide - beta'
_chemical_formula_structural 'Ag I'
_chemical_formula_sum 'Ag1 I1'
_chemical_name_structure_type Wurtzite-ZnS(2H)
_exptl_crystal_density_diffrn 5.69
_cell_measurement_temperature 123.
_publ_section_title 'Anharmonic thermal vibrations in wurtzite-type Ag I.'
loop_
_citation_id
_citation_journal_full
_citation_year
_citation_journal_volume
_citation_page_first
_citation_page_last
_citation_journal_id_ASTM
primary 'Acta Crystallographica, Section B: Structural Science' 1987 43 434 440
ASBSDK
loop_
_publ_author_name
'Yoshiasa, A.'
'Koto, K.'
'Kanamaru, F.'
'Emura, S.'
'Horiuchi, H.'
_cell_length_a 4.591(1)
_cell_length_b 4.591(1)
_cell_length_c 7.511(4)
_cell_angle_alpha 90.
_cell_angle_beta 90.
_cell_angle_gamma 120.
_cell_volume 137.1
_cell_formula_units_Z 2
_symmetry_space_group_name_H-M 'P 63 m c'
_symmetry_Int_Tables_number 186
_refine_ls_R_factor_all 0.023
loop_
_symmetry_equiv_pos_site_id
_symmetry_equiv_pos_as_xyz
1 '-x, -x+y, z+1/2'
2 'x-y, -y, z+1/2'
3 'y, x, z+1/2'
4 'x-y, x, z+1/2'
5 'y, -x+y, z+1/2'
6 '-x, -y, z+1/2'
7 'x, x-y, z'
8 '-x+y, y, z'
9 '-y, -x, z'
10 '-x+y, -x, z'
11 '-y, x-y, z'
12 'x, y, z'
loop_
_atom_type_symbol
_atom_type_oxidation_number
I1- -1
Ag1+ 1
loop_
_atom_site_label
_atom_site_type_symbol
_atom_site_symmetry_multiplicity
_atom_site_Wyckoff_symbol
_atom_site_fract_x
_atom_site_fract_y
_atom_site_fract_z
_atom_site_B_iso_or_equiv
_atom_site_occupancy
_atom_site_attached_hydrogens
I1 I1- 2 b 0.3333 0.6667 0 . 1. 0
Ag1 Ag1+ 2 b 0.3333 0.6667 0.6247(3) . 1. 0
loop_
_atom_site_aniso_label
_atom_site_aniso_type_symbol
_atom_site_aniso_beta_11
_atom_site_aniso_beta_22
_atom_site_aniso_beta_33
_atom_site_aniso_beta_12
_atom_site_aniso_beta_13
_atom_site_aniso_beta_23
I1 I1- 0.0243(5) 0.0243(5) 0.0076(2) 0.01215(5) 0 0
Ag1 Ag1+ 0.0365(8) 0.0365(8) 0.0110(3) 0.01825(8) 0 0
#End of TTdata_62789-ICSD